version 2
run General-0-20190219-15:06:52-15664
attr configname General
attr datetime 20190219-15:06:52
attr experiment General
attr inifile omnetpp.ini
attr iterationvars $N=2
attr iterationvarsf N=2-
attr measurement $N=2
attr network TicToc_ex16
attr processid 15664
attr repetition 0
attr replication #0
attr resultdir results
attr runnumber 0
attr seedset 0
itervar N 2
param *.numCentralNodes 2

vector 0 TicToc_ex16.tic[5] hopCount:vector ETV
attr interpolationmode none
attr source arrival
attr title "hop count, vector"
vector 1 TicToc_ex16.tic[0] hopCount:vector ETV
attr interpolationmode none
attr source arrival
attr title "hop count, vector"
vector 2 TicToc_ex16.tic[1] hopCount:vector ETV
attr interpolationmode none
attr source arrival
attr title "hop count, vector"
vector 3 TicToc_ex16.tic[3] hopCount:vector ETV
attr interpolationmode none
attr source arrival
attr title "hop count, vector"
vector 4 TicToc_ex16.tic[2] hopCount:vector ETV
attr interpolationmode none
attr source arrival
attr title "hop count, vector"
vector 5 TicToc_ex16.tic[4] hopCount:vector ETV
attr interpolationmode none
attr source arrival
attr title "hop count, vector"
0	18	1.7	17
0	72	7.1	11
0	248	24.7	3
0	258	25.7	3
0	346	34.5	7
0	382	38.1	16
0	396	39.5	4
0	416	41.5	10
0	490	48.9	17
0	494	49.3	2
0	502	50.1	7
0	552	55.1	9
0	610	60.9	12
0	624	62.3	1
0	746	74.5	6
0	816	81.5	24
0	904	90.3	7
0	924	92.3	2
0	980	97.9	13
0	1014	101.3	11
0	1042	104.1	3
0	1142	114.1	12
0	1252	125.1	12
0	1290	128.9	2
0	1322	132.1	9
0	1368	136.7	23
0	1484	148.3	7
0	1596	159.5	37
0	1798	179.7	7
0	1814	181.3	11
0	1856	185.5	4
0	1964	196.3	2
0	1990	198.9	2
0	2014	201.3	1
0	2034	203.3	10
0	2118	211.7	9
0	2132	213.1	1
0	2250	224.9	8
0	2286	228.5	23
0	2400	239.9	23
0	2522	252.1	11
0	2584	258.3	3
0	2634	263.3	1
0	2670	266.9	29
0	2718	271.7	17
0	2824	282.3	5
0	2922	292.1	81
0	3044	304.3	10
0	3088	308.7	18
0	3116	311.5	2
0	3164	316.3	1
0	3174	317.3	7
0	3180	317.9	5
0	3230	322.9	33
0	3232	323.1	1
0	3252	325.1	8
0	3336	333.5	37
0	3398	339.7	9
0	3412	341.1	12
0	3450	344.9	29
0	3480	347.9	16
0	3598	359.7	13
0	3680	367.9	31
0	3736	373.5	4
0	3748	374.7	11
0	3794	379.3	4
0	3820	381.9	7
0	3886	388.5	33
0	3916	391.5	15
0	3950	394.9	23
0	3992	399.1	8
0	4036	403.5	4
0	4116	411.5	2
0	4148	414.7	20
0	4150	414.9	1
0	4318	431.7	21
0	4434	443.3	36
0	4464	446.3	1
0	4670	466.9	2
0	4774	477.3	20
0	4784	478.3	6
0	4788	478.7	2
0	4844	484.3	1
0	4900	489.9	32
0	4954	495.3	10
0	5012	501.1	27
0	5060	505.9	5
0	5126	512.5	19
0	5166	516.5	14
0	5188	518.7	6
0	5196	519.5	5
0	5216	521.5	16
0	5228	522.7	6
0	5246	524.5	15
0	5324	532.3	9
0	5346	534.5	9
0	5498	549.7	8
0	5564	556.3	6
0	5618	561.7	38
0	5700	569.9	19
0	5798	579.7	41
0	5840	583.9	9
0	5996	599.5	7
0	6242	624.1	56
0	6290	628.9	33
0	6318	631.7	8
0	6356	635.5	34
0	6430	642.9	14
0	6450	644.9	4
0	6558	655.7	91
0	6600	659.9	3
0	6624	662.3	13
0	6674	667.3	25
0	6686	668.5	8
0	6728	672.7	35
0	6880	687.9	57
0	6980	697.9	31
0	7140	713.9	39
0	7248	724.7	16
0	7284	728.3	9
0	7324	732.3	3
0	7402	740.1	27
0	7430	742.9	19
0	7528	752.7	10
0	7582	758.1	3
0	7616	761.5	3
0	7648	764.7	25
0	7662	766.1	13
0	7718	771.7	20
0	7788	778.7	62
0	7836	783.5	19
0	7942	794.1	3
0	7992	799.1	5
0	8002	800.1	8
0	8004	800.3	1
0	8062	806.1	5
0	8172	817.1	15
0	8188	818.7	8
0	8294	829.3	17
0	8402	840.1	13
0	8466	846.5	21
0	8472	847.1	4
0	8526	852.5	7
0	8570	856.9	23
0	8590	858.9	12
0	8596	859.5	2
0	8620	861.9	5
0	8640	863.9	17
0	8688	868.7	41
0	8712	871.1	14
0	8756	875.5	5
0	8944	894.3	9
0	8988	898.7	8
0	9002	900.1	8
0	9022	902.1	11
0	9084	908.3	3
0	9202	920.1	26
0	9334	933.3	35
0	9352	935.1	3
0	9398	939.7	19
0	9432	943.1	9
0	9478	947.7	14
0	9640	963.9	25
0	9706	970.5	12
0	9768	976.7	1
0	9790	978.9	20
0	9848	984.7	15
0	9882	988.1	15
0	9926	992.5	19
0	10014	1001.3	47
0	10028	1002.7	7
0	10082	1008.1	6
0	10100	1009.9	2
0	10130	1012.9	5
0	10190	1018.9	17
0	10230	1022.9	19
0	10272	1027.1	19
0	10342	1034.1	13
0	10378	1037.7	11
0	10474	1047.3	4
0	10548	1054.7	9
0	10582	1058.1	9
0	10618	1061.7	8
0	10658	1065.7	8
0	10664	1066.3	4
0	10672	1067.1	1
0	10784	1078.3	12
0	10958	1095.7	13
0	11030	1102.9	2
0	11116	1111.5	5
0	11176	1117.5	1
0	11206	1120.5	13
0	11218	1121.7	8
0	11230	1122.9	8
0	11280	1127.9	13
0	11370	1136.9	1
0	11460	1145.9	10
0	11512	1151.1	21
0	11542	1154.1	10
0	11690	1168.9	2
0	11770	1176.9	4
0	11934	1193.3	3
0	11952	1195.1	1
0	12032	1203.1	24
0	12152	1215.1	15
0	12276	1227.5	84
0	12286	1228.5	8
0	12308	1230.7	2
0	12424	1242.3	35
0	12572	1257.1	8
0	12682	1268.1	12
0	12696	1269.5	12
0	12774	1277.3	7
0	12896	1289.5	13
0	12944	1294.3	19
0	13006	1300.5	2
0	13188	1318.7	10
0	13190	1318.9	1
0	13346	1334.5	5
0	13402	1340.1	25
0	13450	1344.9	32
0	13536	1353.5	12
0	13672	1367.1	1
0	13752	1375.1	59
0	13788	1378.7	6
0	13806	1380.5	16
0	13914	1391.3	1
0	14010	1400.9	2
0	14148	1414.7	22
0	14226	1422.5	31
0	14342	1434.1	14
0	14546	1454.5	15
0	14660	1465.9	42
0	14776	1477.5	9
0	14834	1483.3	42
0	14852	1485.1	3
0	14874	1487.3	20
0	14930	1492.9	4
0	14978	1497.7	29
0	15008	1500.7	3
0	15120	1511.9	2
0	15248	1524.7	28
0	15278	1527.7	15
0	15350	1534.9	13
0	15364	1536.3	2
0	15444	1544.3	10
0	15452	1545.1	4
0	15574	1557.3	13
0	15734	1573.3	13
0	15914	1591.3	11
0	15940	1593.9	6
0	15950	1594.9	5
0	15986	1598.5	18
0	16008	1600.7	11
0	16026	1602.5	8
0	16068	1606.7	8
0	16130	1612.9	21
0	16158	1615.7	15
0	16218	1621.7	13
0	16236	1623.5	3
0	16272	1627.1	9
0	16290	1628.9	7
0	16344	1634.3	5
0	16400	1639.9	5
0	16438	1643.7	13
0	16486	1648.5	33
0	16652	1665.1	12
0	16770	1676.9	27
0	16780	1677.9	3
0	16806	1680.5	1
0	16808	1680.7	1
0	16888	1688.7	11
0	16950	1694.9	56
0	16982	1698.1	19
0	17014	1701.3	11
0	17074	1707.3	45
0	17136	1713.5	25
0	17140	1713.9	3
0	17206	1720.5	7
0	17330	1732.9	19
0	17422	1742.1	6
0	17438	1743.7	1
0	17516	1751.5	21
0	17538	1753.7	9
0	17604	1760.3	16
0	17620	1761.9	10
0	17760	1775.9	25
0	17794	1779.3	16
0	17914	1791.3	31
0	17958	1795.7	5
0	18008	1800.7	17
0	18064	1806.3	24
0	18068	1806.7	2
0	18118	1811.7	18
0	18300	1829.9	38
0	18376	1837.5	49
0	18460	1845.9	36
0	18500	1849.9	9
0	18530	1852.9	13
0	18720	1871.9	5
0	18836	1883.5	115
0	18910	1890.9	24
0	18928	1892.7	15
0	18948	1894.7	4
0	18952	1895.1	2
0	18968	1896.7	2
0	19066	1906.5	2
0	19070	1906.9	1
0	19090	1908.9	5
0	19118	1911.7	9
0	19168	1916.7	25
0	19248	1924.7	5
0	19286	1928.5	9
0	19314	1931.3	5
0	19494	1949.3	7
0	19572	1957.1	3
0	19694	1969.3	3
0	19728	1972.7	3
0	19758	1975.7	17
0	19766	1976.5	4
0	19808	1980.7	9
0	19814	1981.3	5
0	19972	1997.1	11
0	19978	1997.7	5
0	19996	1999.5	6
0	20020	2001.9	10
0	20076	2007.5	11
0	20238	2023.7	9
0	20266	2026.5	24
0	20316	2031.5	34
0	20332	2033.1	5
0	20396	2039.5	17
0	20464	2046.3	27
0	20568	2056.7	44
0	20658	2065.7	24
0	20724	2072.3	7
0	20752	2075.1	19
0	20786	2078.5	7
0	20838	2083.7	29
0	20878	2087.7	36
0	20898	2089.7	19
0	20946	2094.5	13
0	20966	2096.5	14
0	20976	2097.5	3
0	21118	2111.7	25
0	21124	2112.3	4
0	21170	2116.9	7
0	21186	2118.5	5
0	21194	2119.3	1
0	21338	2133.7	58
0	21384	2138.3	7
0	21472	2147.1	7
0	21562	2156.1	2
0	21592	2159.1	13
0	21658	2165.7	29
0	21890	2188.9	29
0	21922	2192.1	21
0	21954	2195.3	11
0	22158	2215.7	18
0	22184	2218.3	7
0	22244	2224.3	28
0	22272	2227.1	16
0	22350	2234.9	12
0	22384	2238.3	18
0	22402	2240.1	8
0	22420	2241.9	17
0	22480	2247.9	3
0	22562	2256.1	43
0	22628	2262.7	2
0	22720	2271.9	51
0	22760	2275.9	5
0	22858	2285.7	7
0	22932	2293.1	31
0	22960	2295.9	26
0	23036	2303.5	51
0	23046	2304.5	9
0	23114	2311.3	31
0	23182	2318.1	26
0	23216	2321.5	31
0	23250	2324.9	3
0	23324	2332.3	1
0	23378	2337.7	35
0	23416	2341.5	5
0	23486	2348.5	11
0	23524	2352.3	30
0	23562	2356.1	20
0	23570	2356.9	6
0	23612	2361.1	19
0	23692	2369.1	29
0	23768	2376.7	2
0	23786	2378.5	7
0	23814	2381.3	1
0	23818	2381.7	2
0	23874	2387.3	6
0	23894	2389.3	9
0	23968	2396.7	10
0	24072	2407.1	4
0	24148	2414.7	37
0	24190	2418.9	18
0	24198	2419.7	4
0	24438	2443.7	10
0	24466	2446.5	11
0	24506	2450.5	36
0	24688	2468.7	5
0	24702	2470.1	5
0	24750	2474.9	14
0	24818	2481.7	59
0	24838	2483.7	7
0	24884	2488.3	10
0	24972	2497.1	19
0	25020	2501.9	25
0	25100	2509.9	35
0	25124	2512.3	13
0	25172	2517.1	11
0	25202	2520.1	20
0	25234	2523.3	3
0	25366	2536.5	3
0	25412	2541.1	3
0	25526	2552.5	5
0	25532	2553.1	3
0	25574	2557.3	16
0	25594	2559.3	11
0	25800	2579.9	4
0	25894	2589.3	23
0	25960	2595.9	2
0	25996	2599.5	35
0	26144	2614.3	11
0	26198	2619.7	15
0	26250	2624.9	2
0	26268	2626.7	5
0	26288	2628.7	6
0	26314	2631.3	4
0	26358	2635.7	7
0	26444	2644.3	18
0	26470	2646.9	4
0	26522	2652.1	5
0	26564	2656.3	3
0	26600	2659.9	19
0	26646	2664.5	39
0	26692	2669.1	26
0	26774	2677.3	39
0	26888	2688.7	12
0	26898	2689.7	4
0	26964	2696.3	65
0	26988	2698.7	15
0	27106	2710.5	2
0	27126	2712.5	5
0	27200	2719.9	22
0	27242	2724.1	11
0	27266	2726.5	7
0	27336	2733.5	22
0	27380	2737.9	21
0	27394	2739.3	3
0	27448	2744.7	8
0	27552	2755.1	24
0	27602	2760.1	46
0	27840	2783.9	25
0	27860	2785.9	9
0	27882	2788.1	10
0	27918	2791.7	26
0	27960	2795.9	26
0	27970	2796.9	8
0	28008	2800.7	7
0	28092	2809.1	12
0	28162	2816.1	5
0	28208	2820.7	37
0	28238	2823.7	6
0	28386	2838.5	3
0	28460	2845.9	5
0	28486	2848.5	13
0	28704	2870.3	13
0	28758	2875.7	47
0	28820	2881.9	11
0	28980	2897.9	3
0	29006	2900.5	15
0	29036	2903.5	8
0	29096	2909.5	17
0	29104	2910.3	1
0	29138	2913.7	32
0	29222	2922.1	50
0	29248	2924.7	13
0	29322	2932.1	5
0	29402	2940.1	25
0	29476	2947.5	1
0	29514	2951.3	27
0	29552	2955.1	9
0	29624	2962.3	42
0	29696	2969.5	7
0	29730	2972.9	9
0	29784	2978.3	5
0	29882	2988.1	51
0	30050	3004.9	2
0	30082	3008.1	13
0	30174	3017.3	7
0	30204	3020.3	6
0	30214	3021.3	1
0	30362	3036.1	15
0	30428	3042.7	28
0	30446	3044.5	16
0	30482	3048.1	27
0	30506	3050.5	18
0	30568	3056.7	9
0	30620	3061.9	2
0	30700	3069.9	9
0	30792	3079.1	13
0	30824	3082.3	15
0	30878	3087.7	21
0	30936	3093.5	14
0	31002	3100.1	7
0	31026	3102.5	15
0	31110	3110.9	10
0	31222	3122.1	14
0	31234	3123.3	5
0	31356	3135.5	34
0	31400	3139.9	13
0	31462	3146.1	12
0	31534	3153.3	12
0	31546	3154.5	4
0	31558	3155.7	11
0	31638	3163.7	13
0	31674	3167.3	34
0	31722	3172.1	19
0	31780	3177.9	55
0	31840	3183.9	30
0	31868	3186.7	7
0	31944	3194.3	11
0	31982	3198.1	13
0	32028	3202.7	45
0	32040	3203.9	6
0	32106	3210.5	2
0	32212	3221.1	7
0	32218	3221.7	5
0	32288	3228.7	35
0	32372	3237.1	7
0	32380	3237.9	6
0	32396	3239.5	10
0	32570	3256.9	44
0	32614	3261.3	2
0	32678	3267.7	15
0	32788	3278.7	49
0	32896	3289.5	15
0	33044	3304.3	19
0	33090	3308.9	10
0	33176	3317.5	15
0	33178	3317.7	1
0	33198	3319.7	12
0	33220	3321.9	3
0	33268	3326.7	6
0	33324	3332.3	11
0	33386	3338.5	15
0	33440	3343.9	17
0	33474	3347.3	21
0	33496	3349.5	15
0	33506	3350.5	5
0	33708	3370.7	3
0	33784	3378.3	26
0	33994	3399.3	69
0	34036	3403.5	9
0	34106	3410.5	19
0	34160	3415.9	36
0	34218	3421.7	17
0	34342	3434.1	97
0	34406	3440.5	34
0	34420	3441.9	3
0	34526	3452.5	5
0	34580	3457.9	5
0	34594	3459.3	5
0	34672	3467.1	17
0	34752	3475.1	20
0	34816	3481.5	21
0	34852	3485.1	1
0	34868	3486.7	13
0	34900	3489.9	25
0	34928	3492.7	2
0	34996	3499.5	19
0	35038	3503.7	19
0	35068	3506.7	5
0	35170	3516.9	11
0	35176	3517.5	5
0	35232	3523.1	2
0	35240	3523.9	2
0	35244	3524.3	1
0	35300	3529.9	5
0	35382	3538.1	31
0	35400	3539.9	3
0	35416	3541.5	3
0	35438	3543.7	5
0	35504	3550.3	19
0	35566	3556.5	50
0	35598	3559.7	5
0	35708	3570.7	3
0	35862	3586.1	5
0	35908	3590.7	3
0	35966	3596.5	35
0	36156	3615.5	10
0	36170	3616.9	3
0	36200	3619.9	21
0	36240	3623.9	2
0	36364	3636.3	15
0	36376	3637.5	1
0	36484	3648.3	4
0	36572	3657.1	13
0	36698	3669.7	2
0	36730	3672.9	5
0	36744	3674.3	5
0	36770	3676.9	22
0	36814	3681.3	4
0	36864	3686.3	14
0	36908	3690.7	9
0	36918	3691.7	3
0	37120	3711.9	21
0	37150	3714.9	26
0	37240	3723.9	77
0	37270	3726.9	4
0	37336	3733.5	64
0	37342	3734.1	5
0	37380	3737.9	23
0	37400	3739.9	9
0	37510	3750.9	2
0	37522	3752.1	10
0	37596	3759.5	9
0	37672	3767.1	27
0	37678	3767.7	2
0	37722	3772.1	31
0	37764	3776.3	19
0	37802	3780.1	31
0	37840	3783.9	11
0	38054	3805.3	31
0	38126	3812.5	7
0	38156	3815.5	4
0	38178	3817.7	18
0	38292	3829.1	26
0	38312	3831.1	10
0	38332	3833.1	11
0	38366	3836.5	23
0	38388	3838.7	4
0	38468	3846.7	13
0	38660	3865.9	14
0	38764	3876.3	55
0	38766	3876.5	1
0	38834	3883.3	10
0	38958	3895.7	27
0	38998	3899.7	3
0	39124	3912.3	32
0	39354	3935.3	70
0	39422	3942.1	14
0	39502	3950.1	9
0	39514	3951.3	3
0	39526	3952.5	11
0	39618	3961.7	16
0	39638	3963.7	16
0	39728	3972.7	17
0	39786	3978.5	18
0	39812	3981.1	17
0	39858	3985.7	25
0	39892	3989.1	11
0	39924	3992.3	9
0	40020	4001.9	21
0	40058	4005.7	19
0	40062	4006.1	3
0	40094	4009.3	21
0	40142	4014.1	37
0	40234	4023.3	28
0	40246	4024.5	10
0	40308	4030.7	26
0	40374	4037.3	11
0	40628	4062.7	36
0	40690	4068.9	50
0	40738	4073.7	26
0	40802	4080.1	5
0	40842	4084.1	11
0	40900	4089.9	9
0	40926	4092.5	17
0	41058	4105.7	20
0	41090	4108.9	17
0	41128	4112.7	3
0	41262	4126.1	7
0	41278	4127.7	4
0	41280	4127.9	1
0	41354	4135.3	22
0	41490	4148.9	11
0	41598	4159.7	11
0	41608	4160.7	6
0	41618	4161.7	8
0	41782	4178.1	3
0	41812	4181.1	10
0	41816	4181.5	2
0	41836	4183.5	15
0	41852	4185.1	10
0	41878	4187.7	2
0	41952	4195.1	1
0	41972	4197.1	3
0	42026	4202.5	53
0	42116	4211.5	21
0	42140	4213.9	22
0	42208	4220.7	1
0	42280	4227.9	8
0	42332	4233.1	3
0	42402	4240.1	7
0	42436	4243.5	4
0	42596	4259.5	13
0	42616	4261.5	4
0	42650	4264.9	13
0	42696	4269.5	9
0	42712	4271.1	8
0	42744	4274.3	2
0	42768	4276.7	12
0	42792	4279.1	1
0	42804	4280.3	11
0	42900	4289.9	2
0	42932	4293.1	22
0	42982	4298.1	15
0	43086	4308.5	6
0	43130	4312.9	15
0	43146	4314.5	6
0	43246	4324.5	14
0	43302	4330.1	29
0	43328	4332.7	5
0	43392	4339.1	14
0	43394	4339.3	1
0	43460	4345.9	17
0	43538	4353.7	2
0	43634	4363.3	11
0	43652	4365.1	4
0	43720	4371.9	5
0	43754	4375.3	17
0	43804	4380.3	18
0	43838	4383.7	3
0	43908	4390.7	3
0	44070	4406.9	27
0	44080	4407.9	4
0	44240	4423.9	1
0	44296	4429.5	29
0	44318	4431.7	2
0	44402	4440.1	2
0	44414	4441.3	4
0	44494	4449.3	35
0	44518	4451.7	16
0	44618	4461.7	12
0	44638	4463.7	4
0	44702	4470.1	50
0	44732	4473.1	22
0	44904	4490.3	5
0	45070	4506.9	15
0	45158	4515.7	38
0	45298	4529.7	5
0	45324	4532.3	17
0	45410	4540.9	5
0	45424	4542.3	5
0	45478	4547.7	2
0	45494	4549.3	10
0	45588	4558.7	42
0	45634	4563.3	37
0	45682	4568.1	21
0	45748	4574.7	15
0	45780	4577.9	10
0	45820	4581.9	15
0	45850	4584.9	18
0	45988	4598.7	2
0	46010	4600.9	11
0	46054	4605.3	29
0	46096	4609.5	13
0	46172	4617.1	21
0	46204	4620.3	19
0	46218	4621.7	11
0	46238	4623.7	13
0	46306	4630.5	17
0	46340	4633.9	8
0	46384	4638.3	6
0	46388	4638.7	1
0	46480	4647.9	4
0	46502	4650.1	17
0	46598	4659.7	35
0	46780	4677.9	14
0	46936	4693.5	14
0	47014	4701.3	38
0	47040	4703.9	15
0	47054	4705.3	12
0	47134	4713.3	53
0	47252	4725.1	58
0	47288	4728.7	2
0	47326	4732.5	37
0	47354	4735.3	19
0	47390	4738.9	21
0	47460	4745.9	2
0	47478	4747.7	4
0	47526	4752.5	21
0	47598	4759.7	34
0	47658	4765.7	6
0	47674	4767.3	9
0	47730	4772.9	16
0	47834	4783.3	8
0	47858	4785.7	10
0	47878	4787.7	3
0	47898	4789.7	11
0	47926	4792.5	8
0	47954	4795.3	26
0	48010	4800.9	13
0	48152	4815.1	11
0	48266	4826.5	6
0	48294	4829.3	8
0	48442	4844.1	14
0	48456	4845.5	10
0	48646	4864.5	15
0	48712	4871.1	6
0	48802	4880.1	5
0	48854	4885.3	25
0	48914	4891.3	20
0	48928	4892.7	7
0	49040	4903.9	4
0	49092	4909.1	9
0	49134	4913.3	12
0	49190	4918.9	25
0	49250	4924.9	20
0	49270	4926.9	9
0	49312	4931.1	16
0	49358	4935.7	11
0	49396	4939.5	23
0	49608	4960.7	26
0	49770	4976.9	8
0	49794	4979.3	5
0	49878	4987.7	30
0	49984	4998.3	5
0	49992	4999.1	2
0	50076	5007.5	2
0	50088	5008.7	11
0	50140	5013.9	7
0	50206	5020.5	11
0	50252	5025.1	2
0	50448	5044.7	6
0	50500	5049.9	50
0	50656	5065.5	7
0	50734	5073.3	3
0	50862	5086.1	7
0	50912	5091.1	26
0	50954	5095.3	17
0	51030	5102.9	36
0	51102	5110.1	35
0	51178	5117.7	4
0	51246	5124.5	11
0	51250	5124.9	2
0	51316	5131.5	5
0	51330	5132.9	10
0	51366	5136.5	3
0	51408	5140.7	1
0	51422	5142.1	1
0	51570	5156.9	17
0	51618	5161.7	9
0	51812	5181.1	5
0	51824	5182.3	8
0	51912	5191.1	37
0	52004	5200.3	47
0	52060	5205.9	7
0	52176	5217.5	7
0	52284	5228.3	14
0	52332	5233.1	39
0	52406	5240.5	5
0	52410	5240.9	2
0	52476	5247.5	15
0	52564	5256.3	10
0	52574	5257.3	2
0	52666	5266.5	53
0	52756	5275.5	5
0	52772	5277.1	8
0	52932	5293.1	25
0	53008	5300.7	57
0	53010	5300.9	1
0	53198	5319.7	9
0	53338	5333.7	11
0	53424	5342.3	28
0	53452	5345.1	1
0	53476	5347.5	15
0	53564	5356.3	5
0	53630	5362.9	2
0	53782	5378.1	5
0	53818	5381.7	34
0	53850	5384.9	8
0	53880	5387.9	5
0	53914	5391.3	10
0	53996	5399.5	17
0	54012	5401.1	7
0	54022	5402.1	4
0	54128	5412.7	44
0	54134	5413.3	2
0	54166	5416.5	5
0	54188	5418.7	16
0	54206	5420.5	4
0	54254	5425.3	9
0	54296	5429.5	8
0	54356	5435.5	27
0	54376	5437.5	16
0	54434	5443.3	8
0	54480	5447.9	2
0	54600	5459.9	14
0	54674	5467.3	53
0	54704	5470.3	11
0	54788	5478.7	11
0	54882	5488.1	3
0	54896	5489.5	4
0	54914	5491.3	2
0	55092	5509.1	1
0	55258	5525.7	29
0	55416	5541.5	40
0	55436	5543.5	4
0	55466	5546.5	28
0	55524	5552.3	39
0	55564	5556.3	5
0	55690	5568.9	12
0	55756	5575.5	13
0	55862	5586.1	7
0	55908	5590.7	17
0	55988	5598.7	8
0	56040	5603.9	20
0	56104	5610.3	2
0	56224	5622.3	7
0	56334	5633.3	31
0	56364	5636.3	1
0	56392	5639.1	1
0	56452	5645.1	6
0	56676	5667.5	6
0	56696	5669.5	3
0	56700	5669.9	2
0	56798	5679.7	44
0	56818	5681.7	18
0	56862	5686.1	15
0	57028	5702.7	15
0	57150	5714.9	4
0	57156	5715.5	1
0	57194	5719.3	17
0	57214	5721.3	10
0	57274	5727.3	23
0	57298	5729.7	15
0	57496	5749.5	1
0	57534	5753.3	3
0	57614	5761.3	7
0	57802	5780.1	2
0	57842	5784.1	26
0	57868	5786.7	12
0	57880	5787.9	11
0	57912	5791.1	28
0	57974	5797.3	19
0	58008	5800.7	13
0	58030	5802.9	7
0	58130	5812.9	35
0	58186	5818.5	10
0	58218	5821.7	12
0	58254	5825.3	23
0	58480	5847.9	4
0	58672	5867.1	6
0	58836	5883.5	12
0	59046	5904.5	2
0	59084	5908.3	23
0	59268	5926.7	9
0	59278	5927.7	9
0	59376	5937.5	19
0	59518	5951.7	21
0	59734	5973.3	9
0	59774	5977.3	8
0	59962	5996.1	45
0	60078	6007.7	13
0	60112	6011.1	5
0	60168	6016.7	18
0	60406	6040.5	21
0	60422	6042.1	11
0	60428	6042.7	3
0	60494	6049.3	7
0	60508	6050.7	5
0	60660	6065.9	3
0	60736	6073.5	5
0	60788	6078.7	5
0	60802	6080.1	9
0	60808	6080.7	4
0	60898	6089.7	25
0	61136	6113.5	7
0	61434	6143.3	22
0	61448	6144.7	9
0	61498	6149.7	35
0	61554	6155.3	33
0	61600	6159.9	5
0	61722	6172.1	47
0	61742	6174.1	6
0	61754	6175.3	4
0	61770	6176.9	11
0	61796	6179.5	23
0	61832	6183.1	12
0	61864	6186.3	6
0	61888	6188.7	17
0	61962	6196.1	15
0	61968	6196.7	4
0	62126	6212.5	25
0	62166	6216.5	24
0	62248	6224.7	80
0	62322	6232.1	6
0	62364	6236.3	25
0	62382	6238.1	11
0	62486	6248.5	20
0	62506	6250.5	4
0	62598	6259.7	43
0	62618	6261.7	13
0	62626	6262.5	4
0	62638	6263.7	6
0	62694	6269.3	3
0	62742	6274.1	26
0	62762	6276.1	11
0	62850	6284.9	25
0	62934	6293.3	13
0	62962	6296.1	14
0	62984	6298.3	5
0	63046	6304.5	6
0	63078	6307.7	11
0	63094	6309.3	15
0	63118	6311.7	3
0	63222	6322.1	22
0	63268	6326.7	1
0	63298	6329.7	8
0	63360	6335.9	17
0	63410	6340.9	26
0	63436	6343.5	10
0	63554	6355.3	9
0	63680	6367.9	8
0	63700	6369.9	16
0	63748	6374.7	3
0	63752	6375.1	3
0	63780	6377.9	8
0	63798	6379.7	16
0	63824	6382.3	4
0	63852	6385.1	14
0	63920	6391.9	2
0	64006	6400.5	15
0	64158	6415.7	3
0	64190	6418.9	8
0	64212	6421.1	20
0	64406	6440.5	2
0	64522	6452.1	29
0	64526	6452.5	2
0	64600	6459.9	17
0	64652	6465.1	30
0	64678	6467.7	3
0	64780	6477.9	11
0	64894	6489.3	14
0	64918	6491.7	14
0	64958	6495.7	14
0	65082	6508.1	71
0	65204	6520.3	2
0	65226	6522.5	1
0	65260	6525.9	29
0	65286	6528.5	25
0	65306	6530.5	5
0	65362	6536.1	7
0	65390	6538.9	4
0	65678	6567.7	24
0	65746	6574.5	6
0	65768	6576.7	11
0	65894	6589.3	107
0	66144	6614.3	64
0	66234	6623.3	35
0	66238	6623.7	2
0	66286	6628.5	27
0	66288	6628.7	1
0	66338	6633.7	9
0	66390	6638.9	5
0	66392	6639.1	1
0	66424	6642.3	13
0	66580	6657.9	1
0	66634	6663.3	7
0	66642	6664.1	3
0	66752	6675.1	15
0	66796	6679.5	8
0	66816	6681.5	12
0	66862	6686.1	14
0	66976	6697.5	7
0	67052	6705.1	1
0	67080	6707.9	15
0	67094	6709.3	13
0	67148	6714.7	27
0	67206	6720.5	14
0	67244	6724.3	23
0	67322	6732.1	40
0	67468	6746.7	2
0	67498	6749.7	22
0	67732	6773.1	16
0	67826	6782.5	9
0	67934	6793.3	2
0	68046	6804.5	17
0	68160	6815.9	9
0	68194	6819.3	12
0	68266	6826.5	5
0	68378	6837.7	7
0	68396	6839.5	4
0	68528	6852.7	5
0	68542	6854.1	7
0	68570	6856.9	13
0	68604	6860.3	13
0	68662	6866.1	13
0	68798	6879.7	9
0	68832	6883.1	14
0	68842	6884.1	1
0	68936	6893.5	13
0	69080	6907.9	27
0	69086	6908.5	4
0	69156	6915.5	37
0	69226	6922.5	29
0	69290	6928.9	5
0	69306	6930.5	5
0	69346	6934.5	12
0	69614	6961.3	3
0	69682	6968.1	3
0	69686	6968.5	2
0	69704	6970.3	11
0	69790	6978.9	18
0	69912	6991.1	20
0	69964	6996.3	14
0	69994	6999.3	6
0	70016	7001.5	11
0	70050	7004.9	11
0	70070	7006.9	6
0	70122	7012.1	6
0	70174	7017.3	17
0	70242	7024.1	18
0	70304	7030.3	1
0	70378	7037.7	17
0	70542	7054.1	4
0	70546	7054.5	2
0	70608	7060.7	7
0	70682	7068.1	22
0	70744	7074.3	58
0	70796	7079.5	3
0	70880	7087.9	7
0	70982	7098.1	11
0	71064	7106.3	11
0	71088	7108.7	17
0	71226	7122.5	13
0	71256	7125.5	13
0	71296	7129.5	36
0	71346	7134.5	10
0	71374	7137.3	5
0	71492	7149.1	17
0	71540	7153.9	15
0	71600	7159.9	8
0	71658	7165.7	17
0	71690	7168.9	9
0	71728	7172.7	31
0	71750	7174.9	8
0	71920	7191.9	10
0	72026	7202.5	13
0	72046	7204.5	3
0	72108	7210.7	41
0	72148	7214.7	11
0	72192	7219.1	1
0	72282	7228.1	25
0	72376	7237.5	37
0	72392	7239.1	15
0	72422	7242.1	28
0	72546	7254.5	7
0	72620	7261.9	57
0	72784	7278.3	12
0	72862	7286.1	13
0	72946	7294.5	28
0	72974	7297.3	3
0	73020	7301.9	11
0	73062	7306.1	13
0	73120	7311.9	2
0	73140	7313.9	13
0	73200	7319.9	1
0	73292	7329.1	13
0	73450	7344.9	78
0	73484	7348.3	1
0	73518	7351.7	14
0	73536	7353.5	10
0	73626	7362.5	10
0	73638	7363.7	1
0	73688	7368.7	48
0	73710	7370.9	11
0	73774	7377.3	63
0	73824	7382.3	14
0	73836	7383.5	9
0	73966	7396.5	10
0	73990	7398.9	22
0	74018	7401.7	20
0	74118	7411.7	37
0	74142	7414.1	22
0	74184	7418.3	24
0	74210	7420.9	25
0	74284	7428.3	8
0	74314	7431.3	19
0	74322	7432.1	4
0	74334	7433.3	10
0	74346	7434.5	2
0	74460	7445.9	21
0	74472	7447.1	11
0	74516	7451.5	8
0	74588	7458.7	13
0	74638	7463.7	7
0	74700	7469.9	29
0	74712	7471.1	8
0	74732	7473.1	18
0	74742	7474.1	2
0	74806	7480.5	9
0	74998	7499.7	5
0	75034	7503.3	11
0	75082	7508.1	27
0	75112	7511.1	25
0	75162	7516.1	9
0	75188	7518.7	6
0	75214	7521.3	5
0	75270	7526.9	21
0	75294	7529.3	16
0	75358	7535.7	35
0	75446	7544.5	6
0	75514	7551.3	11
0	75576	7557.5	26
0	75604	7560.3	2
0	75742	7574.1	33
0	75830	7582.9	28
0	75858	7585.7	3
0	75894	7589.3	7
0	75912	7591.1	1
0	75938	7593.7	21
0	75994	7599.3	39
0	76026	7602.5	2
0	76058	7605.7	4
0	76080	7607.9	9
0	76094	7609.3	5
0	76130	7612.9	20
0	76176	7617.5	2
0	76194	7619.3	5
0	76276	7627.5	4
0	76340	7633.9	31
0	76358	7635.7	11
0	76400	7639.9	2
0	76438	7643.7	33
0	76532	7653.1	20
0	76584	7658.3	13
0	76720	7671.9	30
0	76858	7685.7	53
0	76908	7690.7	1
0	76932	7693.1	1
0	77040	7703.9	8
0	77070	7706.9	17
0	77138	7713.7	2
0	77282	7728.1	8
0	77412	7741.1	17
0	77488	7748.7	4
0	77504	7750.3	7
0	77604	7760.3	1
0	77650	7764.9	22
0	77682	7768.1	21
0	77864	7786.3	8
0	77918	7791.7	14
0	77960	7795.9	13
0	77994	7799.3	9
0	78112	7811.1	2
0	78152	7815.1	14
0	78188	7818.7	31
0	78258	7825.7	2
0	78430	7842.9	25
0	78472	7847.1	33
0	78524	7852.3	8
0	78558	7855.7	19
0	78586	7858.5	11
0	78614	7861.3	12
0	78650	7864.9	30
0	78712	7871.1	11
0	78806	7880.5	4
0	78852	7885.1	23
0	78876	7887.5	7
0	78886	7888.5	3
0	78936	7893.5	10
0	79036	7903.5	12
0	79064	7906.3	3
0	79108	7910.7	11
0	79220	7921.9	13
0	79260	7925.9	39
0	79302	7930.1	33
0	79364	7936.3	59
0	79374	7937.3	8
0	79390	7938.9	15
0	79456	7945.5	15
0	79518	7951.7	3
0	79520	7951.9	1
0	79634	7963.3	6
0	79636	7963.5	1
0	79650	7964.9	2
0	79728	7972.7	9
0	79776	7977.5	8
0	79824	7982.3	9
0	79892	7989.1	7
0	80022	8002.1	9
0	80232	8023.1	29
0	80282	8028.1	13
0	80324	8032.3	3
0	80414	8041.3	31
0	80438	8043.7	13
0	80506	8050.5	4
0	80520	8051.9	4
0	80546	8054.5	3
0	80578	8057.7	10
0	80902	8090.1	11
0	81028	8102.7	7
0	81100	8109.9	24
0	81142	8114.1	27
0	81144	8114.3	1
0	81160	8115.9	14
0	81198	8119.7	23
0	81214	8121.3	8
0	81228	8122.7	11
0	81324	8132.3	3
0	81426	8142.5	9
0	81496	8149.5	9
0	81528	8152.7	2
0	81568	8156.7	39
0	81578	8157.7	9
0	81612	8161.1	13
0	81636	8163.5	10
0	81688	8168.7	1
0	81696	8169.5	7
0	81770	8176.9	10
0	81842	8184.1	7
0	81944	8194.3	3
0	82056	8205.5	14
0	82074	8207.3	16
0	82142	8214.1	43
0	82202	8220.1	16
0	82272	8227.1	19
0	82304	8230.3	12
0	82342	8234.1	23
0	82360	8235.9	16
0	82398	8239.7	2
0	82556	8255.5	11
0	82590	8258.9	21
0	82662	8266.1	5
0	82808	8280.7	3
0	82832	8283.1	14
0	82848	8284.7	2
0	82904	8290.3	17
0	82924	8292.3	19
0	82954	8295.3	20
0	82990	8298.9	35
0	83040	8303.9	35
0	83070	8306.9	20
0	83116	8311.5	9
0	83148	8314.7	5
0	83174	8317.3	15
0	83190	8318.9	14
0	83198	8319.7	6
0	83214	8321.3	11
0	83232	8323.1	11
0	83356	8335.5	26
0	83366	8336.5	7
0	83446	8344.5	14
0	83506	8350.5	2
0	83522	8352.1	6
0	83618	8361.7	3
0	83644	8364.3	2
0	83670	8366.9	7
0	83684	8368.3	11
0	83752	8375.1	19
0	83978	8397.7	3
0	84034	8403.3	19
0	84120	8411.9	16
0	84146	8414.5	17
0	84198	8419.7	37
0	84246	8424.5	32
0	84254	8425.3	3
0	84258	8425.7	3
0	84304	8430.3	9
0	84434	8443.3	5
0	84468	8446.7	12
0	84478	8447.7	1
0	84510	8450.9	17
0	84564	8456.3	21
0	84690	8468.9	4
0	84826	8482.5	55
0	84850	8484.9	10
0	84922	8492.1	21
0	84932	8493.1	4
0	85052	8505.1	22
0	85140	8513.9	21
0	85142	8514.1	1
0	85256	8525.5	108
0	85366	8536.5	15
0	85424	8542.3	50
0	85514	8551.3	2
0	85554	8555.3	19
0	85608	8560.7	25
0	85664	8566.3	55
0	85782	8578.1	6
0	85792	8579.1	8
0	85910	8590.9	23
0	85920	8591.9	3
0	86028	8602.7	2
0	86114	8611.3	43
0	86148	8614.7	13
0	86180	8617.9	8
0	86284	8628.3	23
0	86336	8633.5	43
0	86524	8652.3	15
0	86540	8653.9	7
0	86594	8659.3	32
0	86694	8669.3	19
0	86710	8670.9	3
0	86774	8677.3	23
0	86808	8680.7	30
0	86886	8688.5	15
0	86894	8689.3	5
0	86904	8690.3	4
0	86948	8694.7	34
0	87232	8723.1	1
0	87296	8729.5	24
0	87324	8732.3	20
0	87498	8749.7	6
0	87598	8759.7	14
0	87642	8764.1	17
0	87680	8767.9	19
0	87740	8773.9	21
0	87798	8779.7	35
0	88012	8801.1	69
0	88072	8807.1	14
0	88168	8816.7	11
0	88240	8823.9	15
0	88330	8832.9	14
0	88430	8842.9	10
0	88512	8851.1	12
0	88668	8866.7	12
0	88704	8870.3	9
0	88790	8878.9	11
0	88806	8880.5	2
0	89060	8905.9	9
0	89074	8907.3	4
0	89146	8914.5	24
0	89234	8923.3	51
0	89326	8932.5	20
0	89364	8936.3	15
0	89436	8943.5	17
0	89438	8943.7	1
0	89450	8944.9	4
0	89484	8948.3	9
0	89628	8962.7	17
0	89712	8971.1	13
0	89728	8972.7	12
0	89890	8988.9	12
0	89916	8991.5	9
0	90020	9001.9	47
0	90050	9004.9	5
0	90084	9008.3	17
0	90126	9012.5	9
0	90252	9025.1	2
0	90272	9027.1	4
0	90332	9033.1	13
0	90432	9043.1	1
0	90454	9045.3	10
0	90466	9046.5	4
0	90526	9052.5	18
0	90624	9062.3	1
0	90644	9064.3	2
0	90684	9068.3	3
0	90736	9073.5	34
0	90746	9074.5	4
0	90848	9084.7	4
0	90890	9088.9	1
0	90960	9095.9	5
0	91032	9103.1	3
0	91052	9105.1	9
0	91128	9112.7	7
0	91170	9116.9	7
0	91234	9123.3	32
0	91264	9126.3	14
0	91282	9128.1	15
0	91416	9141.5	46
0	91452	9145.1	23
0	91520	9151.9	3
0	91552	9155.1	17
0	91612	9161.1	10
0	91650	9164.9	19
0	91748	9174.7	6
0	91852	9185.1	15
0	91874	9187.3	12
0	91976	9197.5	11
0	92052	9205.1	49
0	92124	9212.3	1
0	92228	9222.7	2
0	92292	9229.1	6
0	92350	9234.9	37
0	92366	9236.5	12
0	92424	9242.3	25
0	92516	9251.5	33
0	92562	9256.1	12
0	92666	9266.5	2
0	92876	9287.5	21
0	92896	9289.5	6
0	92990	9298.9	6
0	92998	9299.7	4
0	93036	9303.5	12
0	93040	9303.9	3
0	93066	9306.5	20
0	93218	9321.7	9
0	93240	9323.9	5
0	93268	9326.7	3
0	93290	9328.9	1
0	93320	9331.9	7
0	93336	9333.5	9
0	93364	9336.3	2
0	93440	9343.9	9
0	93502	9350.1	11
0	93634	9363.3	17
0	93668	9366.7	9
0	93680	9367.9	5
0	93718	9371.7	3
0	93742	9374.1	22
0	93772	9377.1	29
0	93938	9393.7	12
0	94002	9400.1	10
0	94104	9410.3	35
0	94288	9428.7	27
0	94308	9430.7	18
0	94446	9444.5	23
0	94524	9452.3	11
0	94546	9454.5	18
0	94616	9461.5	26
0	94722	9472.1	61
0	94744	9474.3	18
0	94766	9476.5	3
0	94928	9492.7	11
0	95046	9504.5	1
0	95062	9506.1	7
0	95138	9513.7	24
0	95202	9520.1	50
0	95248	9524.7	11
0	95268	9526.7	6
0	95298	9529.7	25
0	95336	9533.5	21
0	95448	9544.7	14
0	95472	9547.1	1
0	95552	9555.1	15
0	95592	9559.1	27
0	95610	9560.9	11
0	95712	9571.1	19
0	95738	9573.7	10
0	95770	9576.9	16
0	95814	9581.3	19
0	95834	9583.3	1
0	95968	9596.7	9
0	96016	9601.5	21
0	96072	9607.1	8
0	96178	9617.7	6
0	96252	9625.1	16
0	96266	9626.5	9
0	96366	9636.5	5
0	96412	9641.1	11
0	96498	9649.7	4
0	96610	9660.9	15
0	96652	9665.1	28
0	96654	9665.3	1
0	96706	9670.5	27
0	96750	9674.9	13
0	96776	9677.5	7
0	96920	9691.9	2
0	96992	9699.1	53
0	97006	9700.5	12
0	97036	9703.5	1
0	97060	9705.9	23
0	97090	9708.9	5
0	97152	9715.1	36
0	97330	9732.9	23
0	97344	9734.3	10
0	97376	9737.5	5
0	97396	9739.5	13
0	97538	9753.7	14
0	97600	9759.9	22
0	97650	9764.9	6
0	97664	9766.3	13
0	97728	9772.7	6
0	97772	9777.1	8
0	97920	9791.9	4
0	98014	9801.3	33
0	98060	9805.9	7
0	98086	9808.5	18
0	98222	9822.1	23
0	98240	9823.9	7
0	98246	9824.5	4
0	98568	9856.7	33
0	98704	9870.3	4
0	98910	9890.9	22
0	99032	9903.1	15
0	99060	9905.9	20
0	99102	9910.1	17
0	99140	9913.9	25
0	99162	9916.1	18
0	99218	9921.7	3
0	99264	9926.3	7
0	99302	9930.1	13
0	99332	9933.1	11
0	99340	9933.9	3
0	99364	9936.3	8
0	99436	9943.5	19
0	99522	9952.1	12
0	99558	9955.7	13
0	99634	9963.3	15
0	99644	9964.3	2
0	99662	9966.1	5
0	99702	9970.1	7
0	99706	9970.5	3
0	99728	9972.7	12
0	99776	9977.5	18
0	99800	9979.9	1
0	99860	9985.9	58
0	99924	9992.3	7
0	99948	9994.7	2
0	100022	10002.1	15
0	100046	10004.5	5
0	100114	10011.3	5
0	100178	10017.7	41
0	100220	10021.9	13
0	100236	10023.5	15
0	100288	10028.7	6
0	100458	10045.7	23
0	100488	10048.7	22
0	100560	10055.9	41
0	100586	10058.5	8
0	100662	10066.1	36
0	100680	10067.9	5
0	100720	10071.9	25
0	100864	10086.3	35
0	100888	10088.7	1
0	100908	10090.7	11
0	100966	10096.5	28
0	100980	10097.9	4
0	101074	10107.3	17
0	101108	10110.7	14
0	101144	10114.3	20
0	101232	10123.1	12
0	101286	10128.5	45
0	101292	10129.1	4
0	101298	10129.7	4
0	101328	10132.7	2
0	101362	10136.1	9
0	101506	10150.5	13
0	101518	10151.7	11
0	101520	10151.9	1
0	101556	10155.5	15
0	101576	10157.5	2
0	101640	10163.9	4
0	101766	10176.5	15
0	101792	10179.1	1
0	101820	10181.9	22
0	101832	10183.1	7
0	101846	10184.5	7
0	101970	10196.9	19
0	102026	10202.5	13
0	102092	10209.1	16
0	102098	10209.7	1
0	102202	10220.1	33
0	102250	10224.9	33
0	102282	10228.1	3
0	102298	10229.7	10
0	102308	10230.7	9
0	102338	10233.7	7
0	102358	10235.7	10