version 2
run General-0-20190218-16:40:10-24964
attr configname General
attr datetime 20190218-16:40:10
attr experiment General
attr inifile omnetpp.ini
attr iterationvars ""
attr iterationvarsf ""
attr measurement ""
attr network Tictoc_ex14
attr processid 24964
attr repetition 0
attr replication #0
attr resultdir results
attr runnumber 0
attr seedset 0

vector 0 Tictoc_ex14.tic[5] hopCount:vector ETV
attr interpolationmode none
attr source arrival
attr title "hop count, vector"
vector 1 Tictoc_ex14.tic[3] hopCount:vector ETV
attr interpolationmode none
attr source arrival
attr title "hop count, vector"
vector 2 Tictoc_ex14.tic[4] hopCount:vector ETV
attr interpolationmode none
attr source arrival
attr title "hop count, vector"
vector 3 Tictoc_ex14.tic[1] hopCount:vector ETV
attr interpolationmode none
attr source arrival
attr title "hop count, vector"
0	19	1.8	18
0	83	8.2	20
0	107	10.6	20
0	233	23.2	16
0	255	25.4	1
0	323	32.2	3
0	539	53.8	44
0	607	60.6	1
0	657	65.6	10
0	727	72.6	1
0	805	80.4	53
0	827	82.6	4
0	879	87.8	30
0	881	88	1
0	917	91.6	21
0	993	99.2	48
1	123	12.2	4
1	179	17.8	2
1	345	34.4	6
1	349	34.8	2
1	377	37.6	2
1	417	41.6	2
1	443	44.2	8
1	541	54	1
1	639	63.8	1
1	663	66.2	6
1	711	71	4
1	747	74.6	12
1	1021	102	4
1	1049	104.8	7
2	200	19.9	3
2	254	25.3	5
2	320	31.9	19
2	354	35.3	2
2	402	40.1	25
2	474	47.3	28
2	540	53.9	1
2	606	60.5	2
2	638	63.7	28
2	640	63.9	1
2	726	72.5	13
2	752	75.1	4
2	828	82.7	1
2	832	83.1	2
2	880	87.9	1
2	882	88.1	1
2	1042	104.1	13
3	204	20.3	4
3	238	23.7	5
3	300	29.9	1
3	338	33.7	1
3	352	35.1	1
3	418	41.7	1
3	424	42.3	1
3	444	44.3	1
3	446	44.5	1
3	604	60.3	1
3	610	60.9	3
3	712	71.1	1
3	748	74.7	1
3	830	82.9	2
3	838	83.7	1
3	848	84.7	1
3	896	89.5	1

